 argument  1 = catTripGeo.nw



============================== echo of input deck ==============================
echo

start molecule

title "Title"
charge 1

geometry units angstroms print xyz autosym
   C        1.77426        1.51664       -0.09049
   C        2.50942        0.32993       -0.13959
   C        1.85715       -0.90522       -0.12963
   C        0.45655       -0.96336       -0.08145
   C       -0.29592        0.23673       -0.04915
   C        0.37332        1.48075       -0.04130
   C       -1.70897        0.17841       -0.02391
   C       -2.34828       -1.06946        0.00643
   C       -1.60023       -2.24896       -0.01152
   C       -0.20558       -2.19965       -0.06235
   C       -0.41452        2.76017        0.06090
   H        2.29925        2.46388       -0.08221
   H        3.59053        0.36754       -0.17558
   H        2.44716       -1.81358       -0.15876
   H       -3.42937       -1.12935        0.03340
   H       -2.10470       -3.20650        0.00674
   H        0.35483       -3.12682       -0.08219
   H        0.15370        3.63259       -0.32692
   C       -2.54162        1.43957       -0.03850
   C       -1.76022        2.61484       -0.63023
   H       -2.35164        3.54922       -0.53267
   H       -3.43605        1.29991       -0.68321
end

basis
  * library 6-31+G*
end

dft
  xc b3lyp
  mult 3
end

task dft optimize
================================================================================


                                         
                                         


              Northwest Computational Chemistry Package (NWChem) 6.8
              ------------------------------------------------------


                    Environmental Molecular Sciences Laboratory
                       Pacific Northwest National Laboratory
                                Richland, WA 99352

                              Copyright (c) 1994-2017
                       Pacific Northwest National Laboratory
                            Battelle Memorial Institute

             NWChem is an open-source computational chemistry package
                        distributed under the terms of the
                      Educational Community License (ECL) 2.0
             A copy of the license is included with this distribution
                              in the LICENSE.TXT file

                                  ACKNOWLEDGMENT
                                  --------------

            This software and its documentation were developed at the
            EMSL at Pacific Northwest National Laboratory, a multiprogram
            national laboratory, operated for the U.S. Department of Energy
            by Battelle under Contract Number DE-AC05-76RL01830. Support
            for this work was provided by the Department of Energy Office
            of Biological and Environmental Research, Office of Basic
            Energy Sciences, and the Office of Advanced Scientific Computing.


           Job information
           ---------------

    hostname        = Bens-MacBook-Pro.local
    program         = nwchem
    date            = Wed Sep  9 16:25:43 2020

    compiled        = Thu_Aug_22_19:36:08_2019
    source          = /private/tmp/nwchem-20190822-82271-fhxpw0/nwchem-6.8.1
    nwchem branch   = 6.8.1
    nwchem revision = v6.8-133-ge032219
    ga revision     = 5.6.5
    use scalapack   = T
    input           = catTripGeo.nw
    prefix          = molecule.
    data base       = ./molecule.db
    status          = startup
    nproc           =        1
    time left       =     -1s



           Memory information
           ------------------

    heap     =   13107196 doubles =    100.0 Mbytes
    stack    =   13107201 doubles =    100.0 Mbytes
    global   =   26214400 doubles =    200.0 Mbytes (distinct from heap & stack)
    total    =   52428797 doubles =    400.0 Mbytes
    verify   = yes
    hardfail = no 


           Directory information
           ---------------------

  0 permanent = .
  0 scratch   = .




                                NWChem Input Module
                                -------------------


                                       Title
                                       -----

 Scaling coordinates for geometry "geometry" by  1.889725989
 (inverse scale =  0.529177249)

 C1  symmetry detected

          ------
          auto-z
          ------


                             Geometry "geometry" -> ""
                             -------------------------

 Output coordinates in angstroms (scale by  1.889725989 to convert to a.u.)

  No.       Tag          Charge          X              Y              Z
 ---- ---------------- ---------- -------------- -------------- --------------
    1 C                    6.0000     2.42528743     0.18207432     0.05390784
    2 C                    6.0000     2.53579606    -1.20695994    -0.04367965
    3 C                    6.0000     1.39016848    -2.00546522    -0.07650705
    4 C                    6.0000     0.11801756    -1.41712734    -0.02291126
    5 C                    6.0000    -0.00154124    -0.00767680     0.05848454
    6 C                    6.0000     1.16301296     0.79029303     0.10934942
    7 C                    6.0000    -1.28455755     0.58702749     0.08921790
    8 C                    6.0000    -2.42474337    -0.22944319     0.07620807
    9 C                    6.0000    -2.29985969    -1.61909602     0.00994843
   10 C                    6.0000    -1.03700911    -2.21245520    -0.04659427
   11 C                    6.0000     1.04748769     2.28390021     0.26376361
   12 H                    1.0000     3.32568591     0.78253462     0.09485525
   13 H                    1.0000     3.51441379    -1.66759023    -0.08412354
   14 H                    1.0000     1.49890568    -3.08149757    -0.14290625
   15 H                    1.0000    -3.41343680     0.21171331     0.10680254
   16 H                    1.0000    -3.18706432    -2.23905687    -0.00497625
   17 H                    1.0000    -0.96331215    -3.29196493    -0.10425449
   18 H                    1.0000     1.95693257     2.81229900    -0.09414656
   19 C                    6.0000    -1.44683377     2.08913301     0.12648520
   20 C                    6.0000    -0.20667182     2.79614386    -0.42498914
   21 H                    1.0000    -0.30558938     3.89347929    -0.28922535
   22 H                    1.0000    -2.29785715     2.39799411    -0.51812705

      Atomic Mass 
      ----------- 

      C                 12.000000
      H                  1.007825


 Effective nuclear repulsion energy (a.u.)     692.3144754749

            Nuclear Dipole moment (a.u.) 
            ----------------------------
        X                 Y               Z
 ---------------- ---------------- ----------------
     0.0000000000     0.0000000000     0.0000000000



                                Z-matrix (autoz)
                                -------- 

 Units are Angstrom for bonds and degrees for angles

      Type          Name      I     J     K     L     M      Value
      ----------- --------  ----- ----- ----- ----- ----- ----------
    1 Stretch                  1     2                       1.39684
    2 Stretch                  1     6                       1.40226
    3 Stretch                  1    12                       1.08303
    4 Stretch                  2     3                       1.39684
    5 Stretch                  2    13                       1.08236
    6 Stretch                  3     4                       1.40263
    7 Stretch                  3    14                       1.08355
    8 Stretch                  4     5                       1.41685
    9 Stretch                  4    10                       1.40257
   10 Stretch                  5     6                       1.41263
   11 Stretch                  5     7                       1.41448
   12 Stretch                  6    11                       1.50601
   13 Stretch                  7     8                       1.40243
   14 Stretch                  7    19                       1.51131
   15 Stretch                  8     9                       1.39683
   16 Stretch                  8    15                       1.08308
   17 Stretch                  9    10                       1.39645
   18 Stretch                  9    16                       1.08245
   19 Stretch                 10    17                       1.08356
   20 Stretch                 11    18                       1.11103
   21 Stretch                 11    20                       1.51977
   22 Stretch                 19    20                       1.53036
   23 Stretch                 19    22                       1.11138
   24 Stretch                 20    21                       1.11012
   25 Bend                     1     2     3               120.34570
   26 Bend                     1     2    13               119.82434
   27 Bend                     1     6     5               119.71272
   28 Bend                     1     6    11               120.21696
   29 Bend                     2     1     6               120.35101
   30 Bend                     2     1    12               119.22233
   31 Bend                     2     3     4               120.21080
   32 Bend                     2     3    14               119.13192
   33 Bend                     3     2    13               119.82715
   34 Bend                     3     4     5               119.73502
   35 Bend                     3     4    10               120.55759
   36 Bend                     4     3    14               120.65726
   37 Bend                     4     5     6               119.63248
   38 Bend                     4     5     7               119.73791
   39 Bend                     4    10     9               120.20514
   40 Bend                     4    10    17               120.65196
   41 Bend                     5     4    10               119.70727
   42 Bend                     5     6    11               120.04530
   43 Bend                     5     7     8               119.50308
   44 Bend                     5     7    19               121.05179
   45 Bend                     6     1    12               120.42456
   46 Bend                     6     5     7               120.62959
   47 Bend                     6    11    18               112.07721
   48 Bend                     6    11    20               110.55555
   49 Bend                     7     8     9               120.46057
   50 Bend                     7     8    15               120.31537
   51 Bend                     7    19    20               111.30170
   52 Bend                     7    19    22               110.12900
   53 Bend                     8     7    19               119.44384
   54 Bend                     8     9    10               120.36437
   55 Bend                     8     9    16               119.81300
   56 Bend                     9     8    15               119.22086
   57 Bend                     9    10    17               119.14233
   58 Bend                    10     9    16               119.82110
   59 Bend                    11    20    19               110.47010
   60 Bend                    11    20    21               110.56571
   61 Bend                    18    11    20               111.66666
   62 Bend                    19    20    21               109.90077
   63 Bend                    20    19    22               106.44720
   64 Torsion                  1     2     3     4           0.53382
   65 Torsion                  1     2     3    14        -179.41771
   66 Torsion                  1     6     5     4           1.17494
   67 Torsion                  1     6     5     7        -178.88016
   68 Torsion                  1     6    11    18          23.83835
   69 Torsion                  1     6    11    20         149.12054
   70 Torsion                  2     1     6     5          -0.35694
   71 Torsion                  2     1     6    11         177.82486
   72 Torsion                  2     3     4     5           0.29332
   73 Torsion                  2     3     4    10        -179.58241
   74 Torsion                  3     2     1     6          -0.50310
   75 Torsion                  3     2     1    12         178.97140
   76 Torsion                  3     4     5     6          -1.14423
   77 Torsion                  3     4     5     7         178.91038
   78 Torsion                  3     4    10     9         179.86579
   79 Torsion                  3     4    10    17           0.14306
   80 Torsion                  4     3     2    13         179.92227
   81 Torsion                  4     5     6    11        -177.01001
   82 Torsion                  4     5     7     8           1.76627
   83 Torsion                  4     5     7    19        -177.81807
   84 Torsion                  4    10     9     8           0.68019
   85 Torsion                  4    10     9    16        -179.76998
   86 Torsion                  5     4     3    14        -179.75589
   87 Torsion                  5     4    10     9          -0.00998
   88 Torsion                  5     4    10    17        -179.73271
   89 Torsion                  5     6     1    12        -179.82508
   90 Torsion                  5     6    11    18        -157.98594
   91 Torsion                  5     6    11    20         -32.70374
   92 Torsion                  5     7     8     9          -1.11029
   93 Torsion                  5     7     8    15         179.54524
   94 Torsion                  5     7    19    20          22.75797
   95 Torsion                  5     7    19    22         140.57026
   96 Torsion                  6     1     2    13        -179.89156
   97 Torsion                  6     5     4    10         178.73258
   98 Torsion                  6     5     7     8        -178.17857
   99 Torsion                  6     5     7    19           2.23709
  100 Torsion                  6    11    20    19          56.67964
  101 Torsion                  6    11    20    21         178.55830
  102 Torsion                  7     5     4    10          -1.21282
  103 Torsion                  7     5     6    11           2.93488
  104 Torsion                  7     8     9    10          -0.11479
  105 Torsion                  7     8     9    16        -179.66465
  106 Torsion                  7    19    20    11         -51.82470
  107 Torsion                  7    19    20    21        -174.09446
  108 Torsion                  8     7    19    20        -156.82661
  109 Torsion                  8     7    19    22         -39.01432
  110 Torsion                  8     9    10    17        -179.59291
  111 Torsion                  9     8     7    19         178.48080
  112 Torsion                 10     4     3    14           0.36837
  113 Torsion                 10     9     8    15         179.23681
  114 Torsion                 11     6     1    12          -1.64329
  115 Torsion                 11    20    19    22        -171.84042
  116 Torsion                 12     1     2    13          -0.41706
  117 Torsion                 13     2     3    14          -0.02926
  118 Torsion                 15     8     7    19          -0.86368
  119 Torsion                 15     8     9    16          -0.31305
  120 Torsion                 16     9    10    17          -0.04308
  121 Torsion                 18    11    20    19        -177.80624
  122 Torsion                 18    11    20    21         -55.92758
  123 Torsion                 21    20    19    22          65.88982


            XYZ format geometry
            -------------------
    22
 geometry
 C                     2.42528743     0.18207432     0.05390784
 C                     2.53579606    -1.20695994    -0.04367965
 C                     1.39016848    -2.00546522    -0.07650705
 C                     0.11801756    -1.41712734    -0.02291126
 C                    -0.00154124    -0.00767680     0.05848454
 C                     1.16301296     0.79029303     0.10934942
 C                    -1.28455755     0.58702749     0.08921790
 C                    -2.42474337    -0.22944319     0.07620807
 C                    -2.29985969    -1.61909602     0.00994843
 C                    -1.03700911    -2.21245520    -0.04659427
 C                     1.04748769     2.28390021     0.26376361
 H                     3.32568591     0.78253462     0.09485525
 H                     3.51441379    -1.66759023    -0.08412354
 H                     1.49890568    -3.08149757    -0.14290625
 H                    -3.41343680     0.21171331     0.10680254
 H                    -3.18706432    -2.23905687    -0.00497625
 H                    -0.96331215    -3.29196493    -0.10425449
 H                     1.95693257     2.81229900    -0.09414656
 C                    -1.44683377     2.08913301     0.12648520
 C                    -0.20667182     2.79614386    -0.42498914
 H                    -0.30558938     3.89347929    -0.28922535
 H                    -2.29785715     2.39799411    -0.51812705

 ==============================================================================
                                internuclear distances
 ------------------------------------------------------------------------------
       center one      |      center two      | atomic units |  angstroms
 ------------------------------------------------------------------------------
    2 C                |   1 C                |     2.63964  |     1.39684
    3 C                |   2 C                |     2.63964  |     1.39684
    4 C                |   3 C                |     2.65059  |     1.40263
    5 C                |   4 C                |     2.67746  |     1.41685
    6 C                |   1 C                |     2.64989  |     1.40226
    6 C                |   5 C                |     2.66949  |     1.41263
    7 C                |   5 C                |     2.67298  |     1.41448
    8 C                |   7 C                |     2.65021  |     1.40243
    9 C                |   8 C                |     2.63962  |     1.39683
   10 C                |   4 C                |     2.65047  |     1.40257
   10 C                |   9 C                |     2.63890  |     1.39645
   11 C                |   6 C                |     2.84594  |     1.50601
   12 H                |   1 C                |     2.04662  |     1.08303
   13 H                |   2 C                |     2.04537  |     1.08236
   14 H                |   3 C                |     2.04761  |     1.08355
   15 H                |   8 C                |     2.04673  |     1.08308
   16 H                |   9 C                |     2.04554  |     1.08245
   17 H                |  10 C                |     2.04763  |     1.08356
   18 H                |  11 C                |     2.09955  |     1.11103
   19 C                |   7 C                |     2.85595  |     1.51131
   20 C                |  11 C                |     2.87194  |     1.51977
   20 C                |  19 C                |     2.89195  |     1.53036
   21 H                |  20 C                |     2.09782  |     1.11012
   22 H                |  19 C                |     2.10020  |     1.11138
 ------------------------------------------------------------------------------
                         number of included internuclear distances:         24
 ==============================================================================



 ==============================================================================
                                 internuclear angles
 ------------------------------------------------------------------------------
        center 1       |       center 2       |       center 3       |  degrees
 ------------------------------------------------------------------------------
    2 C                |   1 C                |   6 C                |   120.35
    2 C                |   1 C                |  12 H                |   119.22
    6 C                |   1 C                |  12 H                |   120.42
    1 C                |   2 C                |   3 C                |   120.35
    1 C                |   2 C                |  13 H                |   119.82
    3 C                |   2 C                |  13 H                |   119.83
    2 C                |   3 C                |   4 C                |   120.21
    2 C                |   3 C                |  14 H                |   119.13
    4 C                |   3 C                |  14 H                |   120.66
    3 C                |   4 C                |   5 C                |   119.74
    3 C                |   4 C                |  10 C                |   120.56
    5 C                |   4 C                |  10 C                |   119.71
    4 C                |   5 C                |   6 C                |   119.63
    4 C                |   5 C                |   7 C                |   119.74
    6 C                |   5 C                |   7 C                |   120.63
    1 C                |   6 C                |   5 C                |   119.71
    1 C                |   6 C                |  11 C                |   120.22
    5 C                |   6 C                |  11 C                |   120.05
    5 C                |   7 C                |   8 C                |   119.50
    5 C                |   7 C                |  19 C                |   121.05
    8 C                |   7 C                |  19 C                |   119.44
    7 C                |   8 C                |   9 C                |   120.46
    7 C                |   8 C                |  15 H                |   120.32
    9 C                |   8 C                |  15 H                |   119.22
    8 C                |   9 C                |  10 C                |   120.36
    8 C                |   9 C                |  16 H                |   119.81
   10 C                |   9 C                |  16 H                |   119.82
    4 C                |  10 C                |   9 C                |   120.21
    4 C                |  10 C                |  17 H                |   120.65
    9 C                |  10 C                |  17 H                |   119.14
    6 C                |  11 C                |  18 H                |   112.08
    6 C                |  11 C                |  20 C                |   110.56
   18 H                |  11 C                |  20 C                |   111.67
    7 C                |  19 C                |  20 C                |   111.30
    7 C                |  19 C                |  22 H                |   110.13
   20 C                |  19 C                |  22 H                |   106.45
   11 C                |  20 C                |  19 C                |   110.47
   11 C                |  20 C                |  21 H                |   110.57
   19 C                |  20 C                |  21 H                |   109.90
 ------------------------------------------------------------------------------
                            number of included internuclear angles:         39
 ==============================================================================



  library name resolved from: .nwchemrc
  library file name is: </usr/local/Cellar/nwchem/6.8.1_8/share/nwchem/libraries/>
  


 Summary of "ao basis" -> "" (cartesian)
 ------------------------------------------------------------------------------
       Tag                 Description            Shells   Functions and Types
 ---------------- ------------------------------  ------  ---------------------
 *                          6-31+G*                   on all atoms 




                           NWChem Geometry Optimization
                           ----------------------------




                                       Title


 maximum gradient threshold         (gmax) =   0.000450
 rms gradient threshold             (grms) =   0.000300
 maximum cartesian step threshold   (xmax) =   0.001800
 rms cartesian step threshold       (xrms) =   0.001200
 fixed trust radius                (trust) =   0.300000
 maximum step size to saddle      (sadstp) =   0.100000
 energy precision                  (eprec) =   5.0D-06
 maximum number of steps          (nptopt) =   20
 initial hessian option           (inhess) =    0
 line search option               (linopt) =    1
 hessian update option            (modupd) =    1
 saddle point option              (modsad) =    0
 initial eigen-mode to follow     (moddir) =    0
 initial variable to follow       (vardir) =    0
 follow first negative mode     (firstneg) =    T
 apply conjugacy                    (opcg) =    F
 source of zmatrix                         =   autoz   


          -------------------
          Energy Minimization
          -------------------


 Names of Z-matrix variables 
    1              2              3              4              5         
    6              7              8              9             10         
   11             12             13             14             15         
   16             17             18             19             20         
   21             22             23             24             25         
   26             27             28             29             30         
   31             32             33             34             35         
   36             37             38             39             40         
   41             42             43             44             45         
   46             47             48             49             50         
   51             52             53             54             55         
   56             57             58             59             60         
   61             62             63             64             65         
   66             67             68             69             70         
   71             72             73             74             75         
   76             77             78             79             80         
   81             82             83             84             85         
   86             87             88             89             90         
   91             92             93             94             95         
   96             97             98             99            100         
  101            102            103            104            105         
  106            107            108            109            110         
  111            112            113            114            115         
  116            117            118            119            120         
  121            122            123         

 Variables with the same non-blank name are constrained to be equal


 Using old Hessian from previous optimization

          --------
          Step   0
          --------


                         Geometry "geometry" -> "geometry"
                         ---------------------------------

 Output coordinates in angstroms (scale by  1.889725989 to convert to a.u.)

  No.       Tag          Charge          X              Y              Z
 ---- ---------------- ---------- -------------- -------------- --------------
    1 C                    6.0000     2.42528743     0.18207432     0.05390784
    2 C                    6.0000     2.53579606    -1.20695994    -0.04367965
    3 C                    6.0000     1.39016848    -2.00546522    -0.07650705
    4 C                    6.0000     0.11801756    -1.41712734    -0.02291126
    5 C                    6.0000    -0.00154124    -0.00767680     0.05848454
    6 C                    6.0000     1.16301296     0.79029303     0.10934942
    7 C                    6.0000    -1.28455755     0.58702749     0.08921790
    8 C                    6.0000    -2.42474337    -0.22944319     0.07620807
    9 C                    6.0000    -2.29985969    -1.61909602     0.00994843
   10 C                    6.0000    -1.03700911    -2.21245520    -0.04659427
   11 C                    6.0000     1.04748769     2.28390021     0.26376361
   12 H                    1.0000     3.32568591     0.78253462     0.09485525
   13 H                    1.0000     3.51441379    -1.66759023    -0.08412354
   14 H                    1.0000     1.49890568    -3.08149757    -0.14290625
   15 H                    1.0000    -3.41343680     0.21171331     0.10680254
   16 H                    1.0000    -3.18706432    -2.23905687    -0.00497625
   17 H                    1.0000    -0.96331215    -3.29196493    -0.10425449
   18 H                    1.0000     1.95693257     2.81229900    -0.09414656
   19 C                    6.0000    -1.44683377     2.08913301     0.12648520
   20 C                    6.0000    -0.20667182     2.79614386    -0.42498914
   21 H                    1.0000    -0.30558938     3.89347929    -0.28922535
   22 H                    1.0000    -2.29785715     2.39799411    -0.51812705

      Atomic Mass 
      ----------- 

      C                 12.000000
      H                  1.007825


 Effective nuclear repulsion energy (a.u.)     692.3144754749

            Nuclear Dipole moment (a.u.) 
            ----------------------------
        X                 Y               Z
 ---------------- ---------------- ----------------
     0.0000000000     0.0000000000     0.0000000000


                                 NWChem DFT Module
                                 -----------------


                                       Title


                      Basis "ao basis" -> "ao basis" (cartesian)
                      -----
  C (Carbon)
  ----------
            Exponent  Coefficients 
       -------------- ---------------------------------------------------------
  1 S  3.04752490E+03  0.001835
  1 S  4.57369510E+02  0.014037
  1 S  1.03948690E+02  0.068843
  1 S  2.92101550E+01  0.232184
  1 S  9.28666300E+00  0.467941
  1 S  3.16392700E+00  0.362312

  2 S  7.86827240E+00 -0.119332
  2 S  1.88128850E+00 -0.160854
  2 S  5.44249300E-01  1.143456

  3 P  7.86827240E+00  0.068999
  3 P  1.88128850E+00  0.316424
  3 P  5.44249300E-01  0.744308

  4 S  1.68714400E-01  1.000000

  5 P  1.68714400E-01  1.000000

  6 S  4.38000000E-02  1.000000

  7 P  4.38000000E-02  1.000000

  8 D  8.00000000E-01  1.000000

  H (Hydrogen)
  ------------
            Exponent  Coefficients 
       -------------- ---------------------------------------------------------
  1 S  1.87311370E+01  0.033495
  1 S  2.82539370E+00  0.234727
  1 S  6.40121700E-01  0.813757

  2 S  1.61277800E-01  1.000000



 Summary of "ao basis" -> "ao basis" (cartesian)
 ------------------------------------------------------------------------------
       Tag                 Description            Shells   Functions and Types
 ---------------- ------------------------------  ------  ---------------------
 C                          6-31+G*                  8       19   4s3p1d
 H                          6-31+G*                  2        2   2s




 Summary of "ao basis" -> "ao basis" (cartesian)
 ------------------------------------------------------------------------------
       Tag                 Description            Shells   Functions and Types
 ---------------- ------------------------------  ------  ---------------------
 C                          6-31+G*                  8       19   4s3p1d
 H                          6-31+G*                  2        2   2s


  Caching 1-el integrals 

            General Information
            -------------------
          SCF calculation type: DFT
          Wavefunction type:  spin polarized.
          No. of atoms     :    22
          No. of electrons :    86
           Alpha electrons :    44
            Beta electrons :    42
          Charge           :     1
          Spin multiplicity:     3
          Use of symmetry is: off; symmetry adaption is: off
          Maximum number of iterations:  30
          AO basis - number of functions:   265
                     number of shells:   122
          Convergence on energy requested:  1.00D-06
          Convergence on density requested:  1.00D-05
          Convergence on gradient requested:  5.00D-04

              XC Information
              --------------
                         B3LYP Method XC Potential
                     Hartree-Fock (Exact) Exchange  0.200          
                        Slater Exchange Functional  0.800 local    
                    Becke 1988 Exchange Functional  0.720 non-local
              Lee-Yang-Parr Correlation Functional  0.810          
                  VWN I RPA Correlation Functional  0.190 local    

             Grid Information
             ----------------
          Grid used for XC integration:  medium    
          Radial quadrature: Mura-Knowles        
          Angular quadrature: Lebedev. 
          Tag              B.-S. Rad. Rad. Pts. Rad. Cut. Ang. Pts.
          ---              ---------- --------- --------- ---------
          C                   0.70       49          16.0       434
          H                   0.35       45          16.0       434
          Grid pruning is: on 
          Number of quadrature shells:  1042
          Spatial weights used:  Erf1

          Convergence Information
          -----------------------
          Convergence aids based upon iterative change in 
          total energy or number of iterations. 
          Levelshifting, if invoked, occurs when the 
          HOMO/LUMO gap drops below (HL_TOL):  1.00D-02
          DIIS, if invoked, will attempt to extrapolate 
          using up to (NFOCK): 10 stored Fock matrices.

                    Damping( 0%)  Levelshifting(0.5)       DIIS
                  --------------- ------------------- ---------------
          dE  on:    start            ASAP                start   
          dE off:    2 iters         30 iters            30 iters 


      Screening Tolerance Information
      -------------------------------
          Density screening/tol_rho:  1.00D-10
          AO Gaussian exp screening on grid/accAOfunc:  14
          CD Gaussian exp screening on grid/accCDfunc:  20
          XC Gaussian exp screening on grid/accXCfunc:  20
          Schwarz screening/accCoul:  1.00D-08


 WARNING : Found     7 linear dependencies 
 S eigenvalue threshold:     1.00000E-05
 Smallest S eigenvalue :     1.38666E-07
 Largest  S eigenvalue :     9.08531E-06


 !! The overlap matrix has   7 vectors deemed linearly dependent with
    eigenvalues:
 1.39D-07 2.09D-07 1.09D-06 1.45D-06 1.95D-06 2.14D-06 9.09D-06


      Superposition of Atomic Density Guess
      -------------------------------------

 Sum of atomic energies:        -494.10948410

 Renormalizing density from      87.00 to     86

      Non-variational initial energy
      ------------------------------

 Total energy =    -499.129944
 1-e energy   =   -2013.431467
 2-e energy   =     821.987047
 HOMO         =      -0.501032
 LUMO         =      -0.366983

   Time after variat. SCF:     32.4
   Time prior to 1st pass:     32.4

 Integral file          = ./molecule.aoints.0
 Record size in doubles =  65536        No. of integs per rec  =  32766
 Max. records in memory =      0        Max. records in file   = 106895
 No. of bits per label  =     16        No. of bits per value  =     64


 #quartets = 2.253D+07 #integrals = 4.446D+08 #direct =  0.0% #cached =100.0%


 Grid_pts file          = ./molecule.gridpts.0
 Record size in doubles =  12289        No. of grid_pts per rec  =   3070
 Max. records in memory =    163        Max. recs in file   =    501549

 Grid integrated density:      86.032598342989
 Requested integration accuracy:   0.10E-05

           Memory utilization after 1st SCF pass: 
           Heap Space remaining (MW):       11.09            11093516
          Stack Space remaining (MW):       13.10            13103860

   convergence    iter        energy       DeltaE   RMS-Dens  Diis-err    time
 ---------------- ----- ----------------- --------- --------- ---------  ------
 d= 0,ls=0.0,diis     1   -496.7571938863 -1.19D+03  1.99D+02  4.09D+02    90.8
                                                     2.11D+02  1.17D+01
 d= 0,ls=0.0,diis     2   -490.6344907733  6.12D+00  1.55D+02  7.25D+00   112.9
                                                     1.71D+02  6.82D+00
 d= 0,ls=0.0,diis     3   -448.2224173653  4.24D+01  1.06D+01  6.00D+01   134.0
                                                     5.85D+00  5.79D+01
 d= 0,ls=0.0,diis     4   -497.9511343168 -4.97D+01  7.91D+00  2.11D+00   156.2
                                                     8.03D+00  2.04D+00
 d= 0,ls=0.0,diis     5   -497.5553068061  3.96D-01  1.19D+02  2.73D+00   177.5
                                                     1.20D+02  2.46D+00
 d= 0,ls=0.5,diis     6   -500.2650893790 -2.71D+00  6.13D-01  2.24D-01   198.8
                                                     5.40D-01  1.88D-01
 d= 0,ls=0.5,diis     7   -500.3670395747 -1.02D-01  2.58D-01  5.32D-02   220.3
                                                     2.25D-01  4.42D-02
  Resetting Diis
 d= 0,ls=0.5,diis     8   -500.3961080760 -2.91D-02  1.10D-01  1.19D-02   242.3
                                                     9.59D-02  7.59D-03
 d= 0,ls=0.5,diis     9   -500.4049530539 -8.84D-03  3.13D-02  3.11D-03   265.8
                                                     2.75D-02  1.49D-03
 d= 0,ls=0.5,diis    10   -500.4083380600 -3.39D-03  7.29D-03  1.28D-03   288.6
                                                     6.32D-03  1.02D-03
 d= 0,ls=0.5,diis    11   -500.4099584518 -1.62D-03  2.36D-03  6.10D-04   311.9
                                                     2.08D-03  4.17D-04
 d= 0,ls=0.5,diis    12   -500.4110974249 -1.14D-03  9.32D-04  3.53D-04   335.0
                                                     8.79D-04  1.87D-04
 d= 0,ls=0.5,diis    13   -500.4118953446 -7.98D-04  4.02D-04  2.68D-04   358.0
                                                     3.98D-04  1.23D-04
 d= 0,ls=0.5,diis    14   -500.4125127588 -6.17D-04  1.90D-04  1.85D-04   383.4
                                                     2.37D-04  1.09D-04
 d= 0,ls=0.5,diis    15   -500.4130165522 -5.04D-04  1.20D-04  1.29D-04   406.8
                                                     1.61D-04  9.31D-05
 d= 0,ls=0.5,diis    16   -500.4133757984 -3.59D-04  1.09D-04  8.36D-05   430.9
                                                     1.54D-04  7.96D-05
 d= 0,ls=0.5,diis    17   -500.4136640759 -2.88D-04  9.37D-05  6.19D-05   454.3
                                                     1.29D-04  7.61D-05
 d= 0,ls=0.5,diis    18   -500.4138816677 -2.18D-04  8.90D-05  4.11D-05   477.9
                                                     1.22D-04  6.31D-05
 d= 0,ls=0.5,diis    19   -500.4140555834 -1.74D-04  7.72D-05  3.07D-05   501.0
                                                     9.80D-05  6.08D-05
 d= 0,ls=0.5,diis    20   -500.4141970515 -1.41D-04  7.02D-05  2.14D-05   524.4
                                                     8.63D-05  5.28D-05
 d= 0,ls=0.5,diis    21   -500.4143148220 -1.18D-04  5.49D-05  1.83D-05   548.7
                                                     7.57D-05  5.02D-05
 d= 0,ls=0.5,diis    22   -500.4144160850 -1.01D-04  5.11D-05  1.21D-05   572.2
                                                     8.05D-05  4.38D-05
 d= 0,ls=0.5,diis    23   -500.4145056285 -8.95D-05  4.40D-05  1.38D-05   595.5
                                                     7.37D-05  4.45D-05
 d= 0,ls=0.5,diis    24   -500.4145879254 -8.23D-05  4.76D-05  1.49D-05   618.3
                                                     7.97D-05  4.43D-05
 d= 0,ls=0.5,diis    25   -500.4146654057 -7.75D-05  2.66D-05  2.60D-05   641.1
                                                     6.31D-05  5.19D-05
 d= 0,ls=0.5,diis    26   -500.4147366186 -7.12D-05  3.26D-05  1.77D-05   663.9
                                                     6.25D-05  4.32D-05
 d= 0,ls=0.5,diis    27   -500.4148017006 -6.51D-05  4.55D-05  2.03D-05   687.2
                                                     6.98D-05  4.37D-05
 d= 0,ls=0.5,diis    28   -500.4148624391 -6.07D-05  3.88D-05  3.53D-05   710.7
                                                     6.65D-05  5.39D-05
 d= 0,ls=0.5,diis    29   -500.4149212576 -5.88D-05  2.25D-05  4.24D-05   734.0
                                                     5.74D-05  5.67D-05
 d= 0,ls=0.5,diis    30   -500.4149785764 -5.73D-05  4.68D-05  3.37D-05   757.8
                                                     6.98D-05  4.75D-05

      Calculation failed to converge
      ------------------------------



         Total DFT energy =     -500.415022141804
      One electron energy =    -2032.192847264846
           Coulomb energy =      912.891935442466
    Exchange-Corr. energy =      -73.428585794322
 Nuclear repulsion energy =      692.314475474898

 Numeric. integr. density =       85.999963288391

     Total iterative time =    748.3s



                    DFT Final Alpha Molecular Orbital Analysis
                    ------------------------------------------

 Vector    1  Occ=1.000000D+00  E=-1.040910D+01
              MO Center= -1.3D+00,  5.9D-01,  8.9D-02, r^2= 2.8D-02
   Bfn.  Coefficient  Atom+Function         Bfn.  Coefficient  Atom+Function  
  ----- ------------  ---------------      ----- ------------  ---------------
   115      0.992923   7 C  s               116      0.050688   7 C  s         
   200      0.030164  11 C  s                29     -0.026158   2 C  s         
   120     -0.025507   7 C  s         

 Vector    2  Occ=1.000000D+00  E=-1.040509D+01
              MO Center=  1.2D+00,  7.9D-01,  1.1D-01, r^2= 2.8D-02
   Bfn.  Coefficient  Atom+Function         Bfn.  Coefficient  Atom+Function  
  ----- ------------  ---------------      ----- ------------  ---------------
    96      0.992873   6 C  s                97      0.050662   6 C  s         
   233      0.036111  19 C  s               126     -0.026631   7 C  py        
   101     -0.025508   6 C  s         

 Vector    3  Occ=1.000000D+00  E=-1.039368D+01
              MO Center=  1.0D+00,  2.3D+00,  2.6D-01, r^2= 2.8D-02
   Bfn.  Coefficient  Atom+Function         Bfn.  Coefficient  Atom+Function  
  ----- ------------  ---------------      ----- ------------  ---------------
   191      0.992888  11 C  s               192      0.050572  11 C  s         

 Vector    4  Occ=1.000000D+00  E=-1.039181D+01
              MO Center= -1.4D+00,  2.1D+00,  1.3D-01, r^2= 2.8D-02
   Bfn.  Coefficient  Atom+Function         Bfn.  Coefficient  Atom+Function  
  ----- ------------  ---------------      ----- ------------  ---------------
   224      0.992955  19 C  s               225      0.050600  19 C  s         

 Vector    5  Occ=1.000000D+00  E=-1.038980D+01
              MO Center= -1.0D+00, -2.2D+00, -4.6D-02, r^2= 3.7D-02
   Bfn.  Coefficient  Atom+Function         Bfn.  Coefficient  Atom+Function  
  ----- ------------  ---------------      ----- ------------  ---------------
   172      0.990429  10 C  s               153      0.064924   9 C  s         
   173      0.051103  10 C  s         

 Vector    6  Occ=1.000000D+00  E=-1.038551D+01
              MO Center= -2.3D+00, -1.6D+00,  9.7D-03, r^2= 3.7D-02
   Bfn.  Coefficient  Atom+Function         Bfn.  Coefficient  Atom+Function  
  ----- ------------  ---------------      ----- ------------  ---------------
   153      0.990583   9 C  s               172     -0.065278  10 C  s         
   154      0.050488   9 C  s               162      0.025878   9 C  s         

 Vector    7  Occ=1.000000D+00  E=-1.038456D+01
              MO Center=  1.4D+00, -2.0D+00, -7.6D-02, r^2= 3.5D-02
   Bfn.  Coefficient  Atom+Function         Bfn.  Coefficient  Atom+Function  
  ----- ------------  ---------------      ----- ------------  ---------------
    39      0.991169   3 C  s                40      0.051131   3 C  s         
    58      0.046181   4 C  s                20      0.034496   2 C  s         
    29     -0.026646   2 C  s         

 Vector    8  Occ=1.000000D+00  E=-1.038081D+01
              MO Center=  3.4D-04, -2.9D-02,  5.7D-02, r^2= 5.8D-02
   Bfn.  Coefficient  Atom+Function         Bfn.  Coefficient  Atom+Function  
  ----- ------------  ---------------      ----- ------------  ---------------
    77      0.985432   5 C  s                58      0.120749   4 C  s         
    78      0.050577   5 C  s                82     -0.026629   5 C  s         

 Vector    9  Occ=1.000000D+00  E=-1.037901D+01
              MO Center= -2.1D-01,  2.8D+00, -4.2D-01, r^2= 2.8D-02
   Bfn.  Coefficient  Atom+Function         Bfn.  Coefficient  Atom+Function  
  ----- ------------  ---------------      ----- ------------  ---------------
   243      0.993133  20 C  s               244      0.048689  20 C  s         
   252      0.032752  20 C  s         

 Vector   10  Occ=1.000000D+00  E=-1.037884D+01
              MO Center=  1.2D-01, -1.4D+00, -2.2D-02, r^2= 6.3D-02
   Bfn.  Coefficient  Atom+Function         Bfn.  Coefficient  Atom+Function  
  ----- ------------  ---------------      ----- ------------  ---------------
    58      0.984260   4 C  s                77     -0.121392   5 C  s         
    59      0.050499   4 C  s                39     -0.045671   3 C  s         
    67      0.035373   4 C  s               200     -0.031821  11 C  s         
   233     -0.030873  19 C  s               126      0.030478   7 C  py        
   107      0.029888   6 C  py               63     -0.028916   4 C  s         

 Vector   11  Occ=1.000000D+00  E=-1.037656D+01
              MO Center=  2.5D+00, -1.2D+00, -4.3D-02, r^2= 3.6D-02
   Bfn.  Coefficient  Atom+Function         Bfn.  Coefficient  Atom+Function  
  ----- ------------  ---------------      ----- ------------  ---------------
    20      0.990792   2 C  s                 1      0.054976   1 C  s         
    21      0.050315   2 C  s                39     -0.035113   3 C  s         

 Vector   12  Occ=1.000000D+00  E=-1.037236D+01
              MO Center= -2.4D+00, -2.3D-01,  7.6D-02, r^2= 2.9D-02
   Bfn.  Coefficient  Atom+Function         Bfn.  Coefficient  Atom+Function  
  ----- ------------  ---------------      ----- ------------  ---------------
   134      0.992685   8 C  s               135      0.050897   8 C  s         
   233      0.032302  19 C  s               162     -0.030818   9 C  s         
   126     -0.026462   7 C  py              200      0.026476  11 C  s         

 Vector   13  Occ=1.000000D+00  E=-1.037158D+01
              MO Center=  2.4D+00,  1.8D-01,  5.4D-02, r^2= 3.4D-02
   Bfn.  Coefficient  Atom+Function         Bfn.  Coefficient  Atom+Function  
  ----- ------------  ---------------      ----- ------------  ---------------
     1      0.991366   1 C  s                20     -0.055364   2 C  s         
     2      0.050928   1 C  s               200      0.039323  11 C  s         
    29     -0.032837   2 C  s               107     -0.027147   6 C  py        
     6     -0.025353   1 C  s                69     -0.025168   4 C  py        
   233      0.025277  19 C  s         

 Vector   14  Occ=1.000000D+00  E=-1.074616D+00
              MO Center= -3.4D-02, -3.8D-01,  2.9D-02, r^2= 3.3D+00
   Bfn.  Coefficient  Atom+Function         Bfn.  Coefficient  Atom+Function  
  ----- ------------  ---------------      ----- ------------  ---------------
    78      0.207690   5 C  s                59      0.182617   4 C  s         
   116      0.157454   7 C  s                97      0.151480   6 C  s         
   173      0.120174  10 C  s                40      0.112009   3 C  s         
    77     -0.109382   5 C  s               120      0.105821   7 C  s         
   135      0.104219   8 C  s               101      0.103319   6 C  s         

 Vector   15  Occ=1.000000D+00  E=-1.015639D+00
              MO Center=  3.3D-02, -5.0D-01,  3.2D-02, r^2= 5.4D+00
   Bfn.  Coefficient  Atom+Function         Bfn.  Coefficient  Atom+Function  
  ----- ------------  ---------------      ----- ------------  ---------------
     2      0.175248   1 C  s               135     -0.172106   8 C  s         
   154     -0.172415   9 C  s                97      0.160780   6 C  s         
    21      0.156779   2 C  s               116     -0.135318   7 C  s         
   173     -0.126050  10 C  s                 6      0.124208   1 C  s         
   139     -0.119251   8 C  s               158     -0.119536   9 C  s         

 Vector   16  Occ=1.000000D+00  E=-9.981469D-01
              MO Center= -1.5D-02,  2.9D-02, -3.7D-03, r^2= 5.2D+00
   Bfn.  Coefficient  Atom+Function         Bfn.  Coefficient  Atom+Function  
  ----- ------------  ---------------      ----- ------------  ---------------
    59      0.166927   4 C  s                40      0.164844   3 C  s         
   173      0.156006  10 C  s               116     -0.153906   7 C  s         
   225     -0.143200  19 C  s               192     -0.137067  11 C  s         
    97     -0.127761   6 C  s                44      0.125459   3 C  s         
   177      0.120820  10 C  s               244     -0.120685  20 C  s         

 Vector   17  Occ=1.000000D+00  E=-9.320955D-01
              MO Center= -1.4D-01, -2.2D-01,  2.9D-02, r^2= 6.0D+00
   Bfn.  Coefficient  Atom+Function         Bfn.  Coefficient  Atom+Function  
  ----- ------------  ---------------      ----- ------------  ---------------
   154      0.195882   9 C  s               233     -0.188090  19 C  s         
    97      0.169156   6 C  s               116     -0.163074   7 C  s         
    40     -0.155858   3 C  s               158      0.151863   9 C  s         
   162      0.143615   9 C  s               173      0.140753  10 C  s         
   192      0.134986  11 C  s               101      0.133214   6 C  s         

 Vector   18  Occ=1.000000D+00  E=-9.299257D-01
              MO Center=  1.9D-01, -5.3D-01,  1.8D-02, r^2= 5.8D+00
   Bfn.  Coefficient  Atom+Function         Bfn.  Coefficient  Atom+Function  
  ----- ------------  ---------------      ----- ------------  ---------------
   200      0.248214  11 C  s                21     -0.206347   2 C  s         
   135     -0.204364   8 C  s                59      0.177333   4 C  s         
   107     -0.177910   6 C  py                2     -0.168048   1 C  s         
   139     -0.159981   8 C  s                25     -0.155992   2 C  s         
    67     -0.148839   4 C  s                63      0.144790   4 C  s         

 Vector   19  Occ=1.000000D+00  E=-9.139245D-01
              MO Center= -3.0D-02,  9.8D-01, -5.2D-02, r^2= 5.3D+00
   Bfn.  Coefficient  Atom+Function         Bfn.  Coefficient  Atom+Function  
  ----- ------------  ---------------      ----- ------------  ---------------
   244      0.223106  20 C  s                78     -0.195175   5 C  s         
   248      0.179102  20 C  s               225      0.173776  19 C  s         
    82     -0.168840   5 C  s               233      0.168783  19 C  s         
   229      0.164159  19 C  s               192      0.149984  11 C  s         
   200      0.144698  11 C  s               196      0.142423  11 C  s         

 Vector   20  Occ=1.000000D+00  E=-8.446302D-01
              MO Center= -2.7D-02,  9.9D-02,  2.9D-03, r^2= 7.2D+00
   Bfn.  Coefficient  Atom+Function         Bfn.  Coefficient  Atom+Function  
  ----- ------------  ---------------      ----- ------------  ---------------
   192     -0.180623  11 C  s               196     -0.179360  11 C  s         
   225      0.179711  19 C  s               229      0.179534  19 C  s         
     2      0.170329   1 C  s               135     -0.169914   8 C  s         
    40     -0.165942   3 C  s               173      0.166696  10 C  s         
   139     -0.151979   8 C  s               177      0.151627  10 C  s         

 Vector   21  Occ=1.000000D+00  E=-8.039949D-01
              MO Center= -2.3D-02, -4.5D-01,  2.4D-02, r^2= 6.1D+00
   Bfn.  Coefficient  Atom+Function         Bfn.  Coefficient  Atom+Function  
  ----- ------------  ---------------      ----- ------------  ---------------
   117      0.175893   7 C  px               98     -0.173534   6 C  px        
   174     -0.166245  10 C  px              154      0.163501   9 C  s         
    78      0.162060   5 C  s                82      0.154216   5 C  s         
    41      0.151128   3 C  px               21      0.144915   2 C  s         
    59     -0.130449   4 C  s                61      0.124298   4 C  py        

 Vector   22  Occ=1.000000D+00  E=-7.909714D-01
              MO Center=  2.6D-02,  1.4D-01,  1.4D-03, r^2= 6.7D+00
   Bfn.  Coefficient  Atom+Function         Bfn.  Coefficient  Atom+Function  
  ----- ------------  ---------------      ----- ------------  ---------------
    79      0.196950   5 C  px              229      0.169800  19 C  s         
   196     -0.162154  11 C  s               225      0.151828  19 C  s         
   192     -0.147485  11 C  s                21     -0.146440   2 C  s         
    60      0.142063   4 C  px               25     -0.140512   2 C  s         
   116     -0.127333   7 C  s                97      0.126536   6 C  s         

 Vector   23  Occ=1.000000D+00  E=-7.820453D-01
              MO Center=  1.2D-02,  1.3D-01, -4.0D-02, r^2= 6.8D+00
   Bfn.  Coefficient  Atom+Function         Bfn.  Coefficient  Atom+Function  
  ----- ------------  ---------------      ----- ------------  ---------------
    80      0.195014   5 C  py              244     -0.192279  20 C  s         
   248     -0.191129  20 C  s                61     -0.138756   4 C  py        
    59     -0.134239   4 C  s                40      0.123501   3 C  s         
    97      0.122341   6 C  s                44      0.118329   3 C  s         
   227     -0.118868  19 C  py               63     -0.116027   4 C  s         

 Vector   24  Occ=1.000000D+00  E=-6.954334D-01
              MO Center= -1.2D-01, -5.2D-01,  2.9D-02, r^2= 7.2D+00
   Bfn.  Coefficient  Atom+Function         Bfn.  Coefficient  Atom+Function  
  ----- ------------  ---------------      ----- ------------  ---------------
   177      0.233074  10 C  s                44     -0.203313   3 C  s         
    79      0.197897   5 C  px              139      0.198434   8 C  s         
   101      0.179641   6 C  s               158     -0.170176   9 C  s         
    98     -0.160974   6 C  px              117     -0.152711   7 C  px        
   120     -0.152287   7 C  s                 4     -0.150784   1 C  py        

 Vector   25  Occ=1.000000D+00  E=-6.908985D-01
              MO Center=  1.4D-01,  6.2D-01, -5.1D-02, r^2= 7.4D+00
   Bfn.  Coefficient  Atom+Function         Bfn.  Coefficient  Atom+Function  
  ----- ------------  ---------------      ----- ------------  ---------------
   196      0.221444  11 C  s               248     -0.218151  20 C  s         
   229      0.203724  19 C  s                63      0.180909   4 C  s         
    80     -0.180476   5 C  py              244     -0.168415  20 C  s         
     6     -0.156726   1 C  s                61      0.153078   4 C  py        
    42      0.149985   3 C  py              192      0.136488  11 C  s         

 Vector   26  Occ=1.000000D+00  E=-6.806686D-01
              MO Center=  1.2D-02, -3.6D-01,  2.3D-03, r^2= 7.5D+00
   Bfn.  Coefficient  Atom+Function         Bfn.  Coefficient  Atom+Function  
  ----- ------------  ---------------      ----- ------------  ---------------
   143      0.244747   8 C  s                10      0.242848   1 C  s         
     3      0.207454   1 C  px              155     -0.202381   9 C  px        
    67      0.195249   4 C  s               136     -0.194701   8 C  px        
    22      0.183058   2 C  px              174      0.167193  10 C  px        
   181     -0.148992  10 C  s                98     -0.148108   6 C  px        

 Vector   27  Occ=1.000000D+00  E=-6.751971D-01
              MO Center= -4.3D-02, -7.5D-01, -2.8D-02, r^2= 7.6D+00
   Bfn.  Coefficient  Atom+Function         Bfn.  Coefficient  Atom+Function  
  ----- ------------  ---------------      ----- ------------  ---------------
    60      0.209003   4 C  px              101     -0.192862   6 C  s         
   120      0.190417   7 C  s               156     -0.189910   9 C  py        
   175     -0.186771  10 C  py               23      0.159898   2 C  py        
    42      0.152587   3 C  py               41     -0.137000   3 C  px        
   194      0.129731  11 C  py              233     -0.126399  19 C  s         

 Vector   28  Occ=1.000000D+00  E=-6.376822D-01
              MO Center=  7.1D-02, -3.9D-01, -2.6D-02, r^2= 8.1D+00
   Bfn.  Coefficient  Atom+Function         Bfn.  Coefficient  Atom+Function  
  ----- ------------  ---------------      ----- ------------  ---------------
    82      0.260564   5 C  s                61      0.167011   4 C  py        
     4      0.160378   1 C  py              175     -0.157931  10 C  py        
    42     -0.153183   3 C  py              156     -0.151388   9 C  py        
    23     -0.148397   2 C  py               22      0.135563   2 C  px        
   137      0.135409   8 C  py               78      0.123317   5 C  s         

 Vector   29  Occ=1.000000D+00  E=-6.051380D-01
              MO Center=  1.8D-01, -5.9D-01,  2.2D-02, r^2= 6.0D+00
   Bfn.  Coefficient  Atom+Function         Bfn.  Coefficient  Atom+Function  
  ----- ------------  ---------------      ----- ------------  ---------------
   233     -0.230297  19 C  s               117     -0.221519   7 C  px        
    79      0.217173   5 C  px                3      0.212713   1 C  px        
   124      0.212383   7 C  s               174     -0.212290  10 C  px        
    98     -0.197482   6 C  px              155      0.196795   9 C  px        
    22      0.184221   2 C  px              200      0.182749  11 C  s         

 Vector   30  Occ=1.000000D+00  E=-5.982995D-01
              MO Center= -3.4D-01,  4.8D-01,  1.1D-02, r^2= 6.2D+00
   Bfn.  Coefficient  Atom+Function         Bfn.  Coefficient  Atom+Function  
  ----- ------------  ---------------      ----- ------------  ---------------
    10      0.219135   1 C  s               143      0.211337   8 C  s         
   105     -0.164544   6 C  s               226     -0.159080  19 C  px        
   124     -0.157555   7 C  s                67      0.153604   4 C  s         
   119     -0.140496   7 C  pz              264      0.136570  22 H  s         
    23      0.135805   2 C  py              193      0.135770  11 C  px        

 Vector   31  Occ=1.000000D+00  E=-5.922202D-01
              MO Center= -2.5D-01,  7.3D-02,  9.0D-03, r^2= 5.8D+00
   Bfn.  Coefficient  Atom+Function         Bfn.  Coefficient  Atom+Function  
  ----- ------------  ---------------      ----- ------------  ---------------
   124      0.210837   7 C  s               227     -0.171202  19 C  py        
   118      0.170013   7 C  py               10     -0.166471   1 C  s         
    81     -0.167258   5 C  pz              175      0.166046  10 C  py        
   100     -0.162873   6 C  pz              125     -0.142757   7 C  px        
    67     -0.140074   4 C  s               143     -0.137264   8 C  s         

 Vector   32  Occ=1.000000D+00  E=-5.911270D-01
              MO Center=  4.9D-01,  2.9D-01,  2.6D-02, r^2= 6.4D+00
   Bfn.  Coefficient  Atom+Function         Bfn.  Coefficient  Atom+Function  
  ----- ------------  ---------------      ----- ------------  ---------------
   194      0.232703  11 C  py               99     -0.224221   6 C  py        
   105     -0.211414   6 C  s               143      0.208680   8 C  s         
    42     -0.205645   3 C  py               10      0.169177   1 C  s         
    67      0.162273   4 C  s               106     -0.155267   6 C  px        
   118      0.133622   7 C  py              175      0.133324  10 C  py        

 Vector   33  Occ=1.000000D+00  E=-5.802952D-01
              MO Center= -6.8D-02, -6.5D-01, -7.1D-03, r^2= 9.6D+00
   Bfn.  Coefficient  Atom+Function         Bfn.  Coefficient  Atom+Function  
  ----- ------------  ---------------      ----- ------------  ---------------
    22      0.204999   2 C  px              155     -0.200987   9 C  px        
   136      0.190206   8 C  px                3     -0.169145   1 C  px        
   101      0.168421   6 C  s               218      0.164327  16 H  s         
   212      0.155370  13 H  s               120      0.142696   7 C  s         
   174      0.128088  10 C  px              216     -0.128057  15 H  s         

 Vector   34  Occ=1.000000D+00  E=-5.575584D-01
              MO Center= -2.6D-02, -4.7D-01,  1.3D-02, r^2= 8.1D+00
   Bfn.  Coefficient  Atom+Function         Bfn.  Coefficient  Atom+Function  
  ----- ------------  ---------------      ----- ------------  ---------------
   156      0.224819   9 C  py                4      0.209292   1 C  py        
   137     -0.208967   8 C  py               23     -0.207629   2 C  py        
   233      0.167897  19 C  s               200     -0.157460  11 C  s         
   175     -0.156202  10 C  py               83      0.139159   5 C  px        
   118      0.139650   7 C  py              194      0.135064  11 C  py        

 Vector   35  Occ=1.000000D+00  E=-5.535623D-01
              MO Center=  5.5D-02,  2.7D-01, -9.9D-02, r^2= 8.2D+00
   Bfn.  Coefficient  Atom+Function         Bfn.  Coefficient  Atom+Function  
  ----- ------------  ---------------      ----- ------------  ---------------
   246      0.258329  20 C  py               80      0.219071   5 C  py        
    42      0.208499   3 C  py              175      0.183648  10 C  py        
    61     -0.177110   4 C  py              262      0.165854  21 H  s         
   214     -0.131499  14 H  s               193      0.129313  11 C  px        
   200     -0.129947  11 C  s               263      0.128321  21 H  s         

 Vector   36  Occ=1.000000D+00  E=-5.298286D-01
              MO Center=  7.8D-02, -2.4D-02,  3.9D-03, r^2= 7.8D+00
   Bfn.  Coefficient  Atom+Function         Bfn.  Coefficient  Atom+Function  
  ----- ------------  ---------------      ----- ------------  ---------------
   174      0.190410  10 C  px               41      0.185058   3 C  px        
   226     -0.173716  19 C  px               22     -0.168801   2 C  px        
   245      0.168630  20 C  px              155     -0.159132   9 C  px        
    60     -0.144439   4 C  px              162     -0.145112   9 C  s         
   193     -0.139163  11 C  px                3      0.135322   1 C  px        

 Vector   37  Occ=1.000000D+00  E=-5.250115D-01
              MO Center= -1.9D-01, -2.8D-01,  4.4D-02, r^2= 6.7D+00
   Bfn.  Coefficient  Atom+Function         Bfn.  Coefficient  Atom+Function  
  ----- ------------  ---------------      ----- ------------  ---------------
   176     -0.211659  10 C  pz              157     -0.209908   9 C  pz        
   100      0.197647   6 C  pz                5      0.168236   1 C  pz        
   138     -0.166001   8 C  pz              195      0.156040  11 C  pz        
   105     -0.133721   6 C  s               180     -0.119200  10 C  pz        
    41      0.118424   3 C  px              104      0.115273   6 C  pz        

 Vector   38  Occ=1.000000D+00  E=-5.221569D-01
              MO Center=  2.6D-01, -3.5D-02,  2.1D-02, r^2= 6.5D+00
   Bfn.  Coefficient  Atom+Function         Bfn.  Coefficient  Atom+Function  
  ----- ------------  ---------------      ----- ------------  ---------------
    43      0.250204   3 C  pz              119     -0.214470   7 C  pz        
    24      0.203084   2 C  pz              228     -0.203840  19 C  pz        
    62      0.165943   4 C  pz              105      0.146734   6 C  s         
    47      0.142103   3 C  pz              124      0.140844   7 C  s         
     5      0.137480   1 C  pz              138     -0.137451   8 C  pz        

 Vector   39  Occ=1.000000D+00  E=-4.954381D-01
              MO Center= -3.2D-01,  1.5D+00, -4.6D-02, r^2= 5.6D+00
   Bfn.  Coefficient  Atom+Function         Bfn.  Coefficient  Atom+Function  
  ----- ------------  ---------------      ----- ------------  ---------------
   226      0.282322  19 C  px              245     -0.277442  20 C  px        
   193      0.223862  11 C  px               79      0.155873   5 C  px        
   222      0.148088  18 H  s               223      0.143918  18 H  s         
    98     -0.141690   6 C  px              117     -0.140112   7 C  px        
   227      0.137289  19 C  py              137      0.133506   8 C  py        

 Vector   40  Occ=1.000000D+00  E=-4.895331D-01
              MO Center=  8.4D-03,  1.1D+00, -3.7D-02, r^2= 6.3D+00
   Bfn.  Coefficient  Atom+Function         Bfn.  Coefficient  Atom+Function  
  ----- ------------  ---------------      ----- ------------  ---------------
   194     -0.222370  11 C  py               99      0.205160   6 C  py        
   118      0.201985   7 C  py              227     -0.200493  19 C  py        
   246      0.175938  20 C  py              193      0.166897  11 C  px        
    61      0.162112   4 C  py               69      0.159558   4 C  py        
    80     -0.152884   5 C  py              105      0.148216   6 C  s         

 Vector   41  Occ=1.000000D+00  E=-4.511969D-01
              MO Center= -7.3D-02,  2.1D-01,  1.4D-01, r^2= 6.8D+00
   Bfn.  Coefficient  Atom+Function         Bfn.  Coefficient  Atom+Function  
  ----- ------------  ---------------      ----- ------------  ---------------
   195      0.252269  11 C  pz              176      0.213742  10 C  pz        
   228     -0.211000  19 C  pz               43     -0.207812   3 C  pz        
   119     -0.202026   7 C  pz              157      0.199615   9 C  pz        
   233      0.199882  19 C  s               100      0.181839   6 C  pz        
   199      0.177572  11 C  pz               29     -0.164222   2 C  s         

 Vector   42  Occ=1.000000D+00  E=-4.399511D-01
              MO Center= -1.0D-01,  7.4D-01, -7.8D-03, r^2= 6.1D+00
   Bfn.  Coefficient  Atom+Function         Bfn.  Coefficient  Atom+Function  
  ----- ------------  ---------------      ----- ------------  ---------------
   105      0.394897   6 C  s               124      0.356180   7 C  s         
    69      0.259708   4 C  py              200     -0.235787  11 C  s         
   106      0.227400   6 C  px              125     -0.223045   7 C  px        
   145     -0.220468   8 C  py               12     -0.217988   1 C  py        
   228     -0.203355  19 C  pz              247     -0.198286  20 C  pz        

 Vector   43  Occ=1.000000D+00  E=-4.316285D-01
              MO Center=  1.5D-01, -4.8D-01,  2.2D-02, r^2= 5.4D+00
   Bfn.  Coefficient  Atom+Function         Bfn.  Coefficient  Atom+Function  
  ----- ------------  ---------------      ----- ------------  ---------------
    81      0.318070   5 C  pz               24     -0.251700   2 C  pz        
   157     -0.227178   9 C  pz               62      0.214950   4 C  pz        
     5     -0.206742   1 C  pz               85      0.206363   5 C  pz        
   138     -0.194064   8 C  pz               28     -0.157377   2 C  pz        
   161     -0.144347   9 C  pz               66      0.138587   4 C  pz        

 Vector   44  Occ=1.000000D+00  E=-3.628448D-01
              MO Center= -2.5D-02,  3.9D-01,  1.7D-01, r^2= 7.2D+00
   Bfn.  Coefficient  Atom+Function         Bfn.  Coefficient  Atom+Function  
  ----- ------------  ---------------      ----- ------------  ---------------
   195      0.275558  11 C  pz              228     -0.262446  19 C  pz        
    43      0.242340   3 C  pz              176     -0.235242  10 C  pz        
     5     -0.227427   1 C  pz              138      0.227551   8 C  pz        
   199      0.208790  11 C  pz              232     -0.196056  19 C  pz        
    47      0.180402   3 C  pz              180     -0.177005  10 C  pz        

 Vector   45  Occ=0.000000D+00  E=-2.251352D-01
              MO Center= -3.8D-01,  1.2D+00, -1.7D-01, r^2= 6.2D+00
   Bfn.  Coefficient  Atom+Function         Bfn.  Coefficient  Atom+Function  
  ----- ------------  ---------------      ----- ------------  ---------------
   252      0.762743  20 C  s                12     -0.478690   1 C  py        
   105      0.467446   6 C  s               145     -0.408624   8 C  py        
    29     -0.405115   2 C  s                89     -0.375644   5 C  pz        
    31     -0.371811   2 C  py              127      0.354728   7 C  pz        
   124      0.343357   7 C  s               247     -0.337197  20 C  pz        

 Vector   46  Occ=0.000000D+00  E=-2.236078D-01
              MO Center=  1.9D-01,  5.4D-01, -6.7D-02, r^2= 7.0D+00
   Bfn.  Coefficient  Atom+Function         Bfn.  Coefficient  Atom+Function  
  ----- ------------  ---------------      ----- ------------  ---------------
   252      0.612050  20 C  s               145     -0.438612   8 C  py        
   162     -0.393913   9 C  s               105      0.375807   6 C  s         
   108      0.357143   6 C  pz              124      0.323653   7 C  s         
   125     -0.303468   7 C  px              100      0.288388   6 C  pz        
   104      0.282355   6 C  pz              164     -0.264373   9 C  py        

 Vector   47  Occ=0.000000D+00  E=-1.923603D-01
              MO Center=  6.2D-04, -6.4D-01, -1.7D-03, r^2= 6.5D+00
   Bfn.  Coefficient  Atom+Function         Bfn.  Coefficient  Atom+Function  
  ----- ------------  ---------------      ----- ------------  ---------------
    89     -0.525704   5 C  pz               70      0.503086   4 C  pz        
    66      0.329357   4 C  pz              142      0.311759   8 C  pz        
    62      0.296891   4 C  pz               10     -0.294735   1 C  s         
     9      0.290315   1 C  pz              138      0.275852   8 C  pz        
   161     -0.277069   9 C  pz               28     -0.271876   2 C  pz        

 Vector   48  Occ=0.000000D+00  E=-1.466475D-01
              MO Center=  9.7D-02, -2.8D-01,  2.9D-02, r^2= 7.0D+00
   Bfn.  Coefficient  Atom+Function         Bfn.  Coefficient  Atom+Function  
  ----- ------------  ---------------      ----- ------------  ---------------
   252      0.594337  20 C  s               108     -0.568251   6 C  pz        
   127     -0.555128   7 C  pz               89      0.531478   5 C  pz        
    51     -0.422882   3 C  pz              184     -0.408004  10 C  pz        
   105      0.403125   6 C  s                12     -0.390117   1 C  py        
    70      0.372580   4 C  pz               29     -0.317917   2 C  s         

 Vector   49  Occ=0.000000D+00  E=-1.171421D-01
              MO Center= -8.1D-02, -1.4D+00, -1.7D-01, r^2= 1.7D+01
   Bfn.  Coefficient  Atom+Function         Bfn.  Coefficient  Atom+Function  
  ----- ------------  ---------------      ----- ------------  ---------------
    29      3.121405   2 C  s               252     -3.047799  20 C  s         
   162      2.835817   9 C  s                12      1.857987   1 C  py        
   145      1.665568   8 C  py               48      1.582245   3 C  s         
   181      1.439660  10 C  s                69      1.359039   4 C  py        
    10     -1.284265   1 C  s                31      1.046076   2 C  py        

 Vector   50  Occ=0.000000D+00  E=-1.023315D-01
              MO Center=  3.8D-01, -4.4D-01, -1.3D-01, r^2= 2.1D+01
   Bfn.  Coefficient  Atom+Function         Bfn.  Coefficient  Atom+Function  
  ----- ------------  ---------------      ----- ------------  ---------------
   126      1.804831   7 C  py               12      1.673703   1 C  py        
   105     -1.679785   6 C  s               107     -1.640937   6 C  py        
    29      1.591288   2 C  s               181      1.399989  10 C  s         
   106     -1.277011   6 C  px              124      1.143320   7 C  s         
   233     -1.050843  19 C  s               125     -1.043273   7 C  px        

 Vector   51  Occ=0.000000D+00  E=-1.000876D-01
              MO Center= -3.9D-01,  1.7D-01, -3.4D-01, r^2= 1.9D+01
   Bfn.  Coefficient  Atom+Function         Bfn.  Coefficient  Atom+Function  
  ----- ------------  ---------------      ----- ------------  ---------------
   252      5.401028  20 C  s               181     -2.761874  10 C  s         
   145     -2.431377   8 C  py               48     -2.353285   3 C  s         
   162     -2.358720   9 C  s                12     -2.213565   1 C  py        
   235     -1.711672  19 C  py               29     -1.670389   2 C  s         
    31     -1.610374   2 C  py               10      1.464159   1 C  s         

 Vector   52  Occ=0.000000D+00  E=-9.736758D-02
              MO Center=  2.7D-01, -5.5D-01, -6.4D-02, r^2= 1.4D+01
   Bfn.  Coefficient  Atom+Function         Bfn.  Coefficient  Atom+Function  
  ----- ------------  ---------------      ----- ------------  ---------------
    48      2.828393   3 C  s               252     -2.666673  20 C  s         
   233      2.315815  19 C  s               200     -2.015395  11 C  s         
    29      1.619898   2 C  s                12      1.298263   1 C  py        
    10     -1.277150   1 C  s               105      1.250640   6 C  s         
    68     -1.181452   4 C  px               31      1.143792   2 C  py        

 Vector   53  Occ=0.000000D+00  E=-8.843700D-02
              MO Center=  5.7D-02, -2.3D-01,  9.9D-02, r^2= 1.5D+01
   Bfn.  Coefficient  Atom+Function         Bfn.  Coefficient  Atom+Function  
  ----- ------------  ---------------      ----- ------------  ---------------
   233      6.390279  19 C  s               200      5.322867  11 C  s         
   126     -4.070369   7 C  py              107     -3.675091   6 C  py        
    67     -2.927086   4 C  s                69     -2.505136   4 C  py        
   124     -2.238150   7 C  s               162     -1.877329   9 C  s         
   235     -1.844685  19 C  py               86     -1.616003   5 C  s         

 Vector   54  Occ=0.000000D+00  E=-8.261494D-02
              MO Center= -1.2D-01,  1.7D-01, -2.3D-02, r^2= 2.4D+01
   Bfn.  Coefficient  Atom+Function         Bfn.  Coefficient  Atom+Function  
  ----- ------------  ---------------      ----- ------------  ---------------
   200      9.658409  11 C  s               107     -6.651455   6 C  py        
   143     -6.663294   8 C  s               181      6.326746  10 C  s         
    29     -5.502982   2 C  s                67     -5.236684   4 C  s         
   124      5.115593   7 C  s                10     -5.066952   1 C  s         
   106      3.769877   6 C  px              126     -3.617458   7 C  py        

 Vector   55  Occ=0.000000D+00  E=-8.171034D-02
              MO Center=  4.1D-02,  3.3D-01,  7.5D-02, r^2= 2.2D+01
   Bfn.  Coefficient  Atom+Function         Bfn.  Coefficient  Atom+Function  
  ----- ------------  ---------------      ----- ------------  ---------------
   233      8.342258  19 C  s               162     -5.475990   9 C  s         
   126     -5.236346   7 C  py               48      5.113791   3 C  s         
    10     -3.918423   1 C  s               105      3.922326   6 C  s         
   200     -3.501103  11 C  s               252      3.198626  20 C  s         
    68     -3.066752   4 C  px              125     -2.730728   7 C  px        

 Vector   56  Occ=0.000000D+00  E=-7.512350D-02
              MO Center= -1.3D-01, -1.4D-01,  1.9D-02, r^2= 1.7D+01
   Bfn.  Coefficient  Atom+Function         Bfn.  Coefficient  Atom+Function  
  ----- ------------  ---------------      ----- ------------  ---------------
   233      5.628094  19 C  s               252     -3.678338  20 C  s         
    48      2.591920   3 C  s               200      2.497967  11 C  s         
    89     -2.265266   5 C  pz              124     -2.254402   7 C  s         
   126     -2.191655   7 C  py               10     -1.937772   1 C  s         
    12      1.877947   1 C  py               67     -1.766044   4 C  s         

 Vector   57  Occ=0.000000D+00  E=-5.973654D-02
              MO Center= -2.3D-02, -1.7D-01, -1.2D-01, r^2= 2.4D+01
   Bfn.  Coefficient  Atom+Function         Bfn.  Coefficient  Atom+Function  
  ----- ------------  ---------------      ----- ------------  ---------------
    29      7.790705   2 C  s               162      7.452264   9 C  s         
    67     -5.699066   4 C  s               105     -4.241281   6 C  s         
   124     -3.598021   7 C  s               252      3.112452  20 C  s         
    69      2.707647   4 C  py               10     -2.218693   1 C  s         
   182      2.178827  10 C  px               12      1.971516   1 C  py        

 Vector   58  Occ=0.000000D+00  E=-5.475783D-02
              MO Center=  4.0D-02,  5.0D-02, -2.4D-01, r^2= 2.3D+01
   Bfn.  Coefficient  Atom+Function         Bfn.  Coefficient  Atom+Function  
  ----- ------------  ---------------      ----- ------------  ---------------
   200      3.221669  11 C  s               126     -1.617478   7 C  py        
    68      1.536282   4 C  px              252     -1.155478  20 C  s         
   106     -1.107571   6 C  px              253     -1.108833  20 C  px        
   105     -0.991464   6 C  s               144      0.903230   8 C  px        
   201     -0.867920  11 C  px              183     -0.783020  10 C  py        

 Vector   59  Occ=0.000000D+00  E=-4.817325D-02
              MO Center= -9.9D-02,  8.5D-01,  5.1D-02, r^2= 2.0D+01
   Bfn.  Coefficient  Atom+Function         Bfn.  Coefficient  Atom+Function  
  ----- ------------  ---------------      ----- ------------  ---------------
   200     12.506813  11 C  s               233     10.402956  19 C  s         
   252     -9.551983  20 C  s               105     -6.226047   6 C  s         
   124     -5.290663   7 C  s               107     -3.973090   6 C  py        
    86     -3.474784   5 C  s                69     -3.225401   4 C  py        
    88     -3.234588   5 C  py               12      3.029849   1 C  py        

 Vector   60  Occ=0.000000D+00  E=-4.652201D-02
              MO Center=  1.2D-01, -1.8D-01,  1.7D-01, r^2= 2.0D+01
   Bfn.  Coefficient  Atom+Function         Bfn.  Coefficient  Atom+Function  
  ----- ------------  ---------------      ----- ------------  ---------------
   233      7.939827  19 C  s               124     -3.632794   7 C  s         
   181     -2.399700  10 C  s                68     -2.153952   4 C  px        
    69     -2.057089   4 C  py              252     -2.052950  20 C  s         
   106     -1.973708   6 C  px              143      1.940125   8 C  s         
   162     -1.907120   9 C  s               107     -1.891099   6 C  py        

 Vector   61  Occ=0.000000D+00  E=-3.900169D-02
              MO Center=  4.3D-02, -2.7D-01,  1.2D-01, r^2= 1.4D+01
   Bfn.  Coefficient  Atom+Function         Bfn.  Coefficient  Atom+Function  
  ----- ------------  ---------------      ----- ------------  ---------------
   200      4.836242  11 C  s               105     -3.407858   6 C  s         
   106     -3.002522   6 C  px               48     -2.490518   3 C  s         
   107     -2.271885   6 C  py               12      2.049473   1 C  py        
   143      2.027179   8 C  s               162     -1.804547   9 C  s         
   233     -1.658790  19 C  s               253     -1.642873  20 C  px        

 Vector   62  Occ=0.000000D+00  E=-3.032171D-02
              MO Center= -5.6D-02, -5.8D-02,  2.3D-02, r^2= 2.2D+01
   Bfn.  Coefficient  Atom+Function         Bfn.  Coefficient  Atom+Function  
[...]
  ----- ------------  ---------------      ----- ------------  ---------------
    82     -8.607883   5 C  s                63      8.307528   4 C  s         
    25      4.659878   2 C  s               158      4.625283   9 C  s         
     6     -4.523575   1 C  s               139     -4.513809   8 C  s         
   101      4.458094   6 C  s               120      4.407843   7 C  s         
    44     -4.273526   3 C  s               177     -4.222658  10 C  s         

 Vector  244  Occ=0.000000D+00  E= 3.221809D+00
              MO Center=  2.5D-02, -5.9D-01,  2.6D-02, r^2= 4.5D+00
   Bfn.  Coefficient  Atom+Function         Bfn.  Coefficient  Atom+Function  
  ----- ------------  ---------------      ----- ------------  ---------------
    63      3.986078   4 C  s                82     -3.015903   5 C  s         
    84      2.875984   5 C  py              139     -2.425913   8 C  s         
     6     -2.388276   1 C  s                65      2.336953   4 C  py        
   158      2.152234   9 C  s                25      2.088827   2 C  s         
   181      2.075095  10 C  s                48      2.026069   3 C  s         

 Vector  245  Occ=0.000000D+00  E= 3.303599D+00
              MO Center=  8.8D-02, -6.2D-01,  2.5D-02, r^2= 4.4D+00
   Bfn.  Coefficient  Atom+Function         Bfn.  Coefficient  Atom+Function  
  ----- ------------  ---------------      ----- ------------  ---------------
    83      3.692483   5 C  px               64     -3.290443   4 C  px        
    44      3.050479   3 C  s               177     -2.982766  10 C  s         
   101     -2.906696   6 C  s               120      2.904609   7 C  s         
     6      2.489644   1 C  s                25     -2.466741   2 C  s         
   139     -2.400612   8 C  s               158      2.390399   9 C  s         

 Vector  246  Occ=0.000000D+00  E= 4.009863D+00
              MO Center= -3.1D-01,  1.7D+00, -2.9D-02, r^2= 3.7D+00
   Bfn.  Coefficient  Atom+Function         Bfn.  Coefficient  Atom+Function  
  ----- ------------  ---------------      ----- ------------  ---------------
   252      4.456945  20 C  s                29     -3.511648   2 C  s         
    10      2.736016   1 C  s               162     -2.491514   9 C  s         
   181     -2.455364  10 C  s                48     -2.364736   3 C  s         
    12     -2.101400   1 C  py              143      2.067348   8 C  s         
   200      1.769460  11 C  s                69     -1.733130   4 C  py        

 Vector  247  Occ=0.000000D+00  E= 4.063785D+00
              MO Center= -6.2D-01, -1.2D+00, -3.2D-02, r^2= 5.7D+00
   Bfn.  Coefficient  Atom+Function         Bfn.  Coefficient  Atom+Function  
  ----- ------------  ---------------      ----- ------------  ---------------
   233     -1.584617  19 C  s               154      1.559901   9 C  s         
   252      1.398875  20 C  s               173      1.382388  10 C  s         
    10      1.258118   1 C  s                48     -1.234890   3 C  s         
   171     -1.041861   9 C  dzz              40      1.035248   3 C  s         
   169     -1.018055   9 C  dyy             166     -0.982068   9 C  dxx       

 Vector  248  Occ=0.000000D+00  E= 4.072382D+00
              MO Center=  7.7D-01, -6.2D-01,  2.0D-02, r^2= 6.4D+00
   Bfn.  Coefficient  Atom+Function         Bfn.  Coefficient  Atom+Function  
  ----- ------------  ---------------      ----- ------------  ---------------
   200      2.890826  11 C  s               233     -1.755140  19 C  s         
    21     -1.581799   2 C  s                 2     -1.205314   1 C  s         
    48     -1.170248   3 C  s               181      1.159530  10 C  s         
    33      1.038764   2 C  dxx              38      1.042899   2 C  dzz       
   154      1.031256   9 C  s                 6     -1.011440   1 C  s         

 Vector  249  Occ=0.000000D+00  E= 4.119598D+00
              MO Center= -1.2D-01, -4.9D-02,  4.7D-03, r^2= 3.3D+00
   Bfn.  Coefficient  Atom+Function         Bfn.  Coefficient  Atom+Function  
  ----- ------------  ---------------      ----- ------------  ---------------
   252      2.883205  20 C  s                78      1.798519   5 C  s         
   126     -1.731755   7 C  py               82      1.594586   5 C  s         
    67     -1.561068   4 C  s                69     -1.368510   4 C  py        
    95     -1.313843   5 C  dzz             107     -1.303226   6 C  py        
    90     -1.258848   5 C  dxx              29      1.247827   2 C  s         

 Vector  250  Occ=0.000000D+00  E= 4.127648D+00
              MO Center=  1.1D-01, -9.8D-01,  5.3D-03, r^2= 5.5D+00
   Bfn.  Coefficient  Atom+Function         Bfn.  Coefficient  Atom+Function  
  ----- ------------  ---------------      ----- ------------  ---------------
   162     -4.693341   9 C  s                29      4.645943   2 C  s         
    68     -4.224518   4 C  px              106     -3.535108   6 C  px        
   233      3.231154  19 C  s               200     -3.151099  11 C  s         
   125     -2.829827   7 C  px              181     -2.514095  10 C  s         
    87      2.472021   5 C  px              145     -2.392058   8 C  py        

 Vector  251  Occ=0.000000D+00  E= 4.148336D+00
              MO Center= -1.8D-01,  7.3D-01,  1.1D-01, r^2= 6.1D+00
   Bfn.  Coefficient  Atom+Function         Bfn.  Coefficient  Atom+Function  
  ----- ------------  ---------------      ----- ------------  ---------------
   233      6.082448  19 C  s               126     -5.222205   7 C  py        
   124     -4.262541   7 C  s               105      4.152936   6 C  s         
    48      3.846108   3 C  s               181     -3.711747  10 C  s         
    87      2.980921   5 C  px              162     -2.675443   9 C  s         
   106     -2.452372   6 C  px              107      2.461488   6 C  py        

 Vector  252  Occ=0.000000D+00  E= 4.153612D+00
              MO Center=  3.4D-01, -2.0D-01, -2.8D-02, r^2= 6.0D+00
   Bfn.  Coefficient  Atom+Function         Bfn.  Coefficient  Atom+Function  
  ----- ------------  ---------------      ----- ------------  ---------------
   200     12.450921  11 C  s               233     10.022487  19 C  s         
   107     -9.400225   6 C  py              126     -8.320290   7 C  py        
    67     -7.472494   4 C  s                69     -5.652122   4 C  py        
   143     -4.224686   8 C  s                10     -4.091314   1 C  s         
    29     -3.608109   2 C  s               162     -3.421050   9 C  s         

 Vector  253  Occ=0.000000D+00  E= 4.234761D+00
              MO Center= -1.0D-01, -2.5D-01, -1.1D-02, r^2= 5.6D+00
   Bfn.  Coefficient  Atom+Function         Bfn.  Coefficient  Atom+Function  
  ----- ------------  ---------------      ----- ------------  ---------------
   162     -5.232188   9 C  s                67      4.862531   4 C  s         
    29     -4.244332   2 C  s               124      3.496547   7 C  s         
   233     -3.051737  19 C  s                10      2.585066   1 C  s         
   105      2.426779   6 C  s               143      2.348695   8 C  s         
   126      2.075250   7 C  py              158      1.887018   9 C  s         

 Vector  254  Occ=0.000000D+00  E= 4.244170D+00
              MO Center=  1.0D-01,  7.5D-01, -3.6D-02, r^2= 6.0D+00
   Bfn.  Coefficient  Atom+Function         Bfn.  Coefficient  Atom+Function  
  ----- ------------  ---------------      ----- ------------  ---------------
   124     -5.751734   7 C  s               143      5.333047   8 C  s         
    10      5.280143   1 C  s                67      4.884729   4 C  s         
   105     -4.655455   6 C  s                69     -3.818454   4 C  py        
   125      3.199099   7 C  px               88     -3.056697   5 C  py        
   181     -2.648296  10 C  s                29     -2.634687   2 C  s         

 Vector  255  Occ=0.000000D+00  E= 4.260021D+00
              MO Center= -2.6D-02,  3.9D-01,  6.7D-02, r^2= 6.4D+00
   Bfn.  Coefficient  Atom+Function         Bfn.  Coefficient  Atom+Function  
  ----- ------------  ---------------      ----- ------------  ---------------
    29      5.148527   2 C  s               162     -4.583033   9 C  s         
   105     -3.968497   6 C  s               233     -3.590769  19 C  s         
   200      2.945231  11 C  s               106     -2.923134   6 C  px        
    12      2.388231   1 C  py               44      2.358472   3 C  s         
   229      2.229693  19 C  s                31      2.069922   2 C  py        

 Vector  256  Occ=0.000000D+00  E= 4.351025D+00
              MO Center= -5.8D-02,  2.8D-01, -1.3D-03, r^2= 5.9D+00
   Bfn.  Coefficient  Atom+Function         Bfn.  Coefficient  Atom+Function  
  ----- ------------  ---------------      ----- ------------  ---------------
    69     -3.906514   4 C  py               48      3.801061   3 C  s         
    10     -3.428247   1 C  s               181      3.324089  10 C  s         
   126     -3.162398   7 C  py              107     -2.943976   6 C  py        
   143     -2.854186   8 C  s                63      2.507488   4 C  s         
   162     -2.433646   9 C  s               233      2.301150  19 C  s         

 Vector  257  Occ=0.000000D+00  E= 4.394426D+00
              MO Center=  2.8D-02, -1.3D-01,  5.1D-02, r^2= 6.4D+00
   Bfn.  Coefficient  Atom+Function         Bfn.  Coefficient  Atom+Function  
  ----- ------------  ---------------      ----- ------------  ---------------
    29      5.857027   2 C  s               162     -5.344250   9 C  s         
   125     -4.156814   7 C  px              106     -4.109854   6 C  px        
   120      3.360390   7 C  s               101     -3.195609   6 C  s         
    68     -2.922059   4 C  px                6      2.770441   1 C  s         
   145     -2.730477   8 C  py               44      2.716284   3 C  s         

 Vector  258  Occ=0.000000D+00  E= 4.669553D+00
              MO Center=  3.4D-02, -4.0D-01,  3.3D-02, r^2= 4.3D+00
   Bfn.  Coefficient  Atom+Function         Bfn.  Coefficient  Atom+Function  
  ----- ------------  ---------------      ----- ------------  ---------------
    63      4.085187   4 C  s                82     -4.084307   5 C  s         
    69     -2.569323   4 C  py              200      2.554873  11 C  s         
   233      2.520697  19 C  s                 6     -2.277005   1 C  s         
   120      2.262497   7 C  s               101      2.251210   6 C  s         
   139     -2.212366   8 C  s                25      2.088510   2 C  s         


   alpha - beta orbital overlaps 
   ----------------------------- 


   alpha      1      2      3      4      5      6      7      8      9     10
    beta      1      2      4      7      3      5     10      8      6      9
 overlap   1.000  1.000  0.840  0.998  0.943  0.944  0.900  0.967  0.838  0.870


   alpha     11     12     13     14     15     16     17     18     19     20
    beta     11     12     13     14     15     16     18     17     19     20
 overlap   0.999  1.000  1.000  0.999  0.999  0.999  0.915  0.915  0.996  0.994


   alpha     21     22     23     24     25     26     27     28     29     30
    beta     21     22     23     24     25     26     27     28     29     30
 overlap   0.999  0.993  0.998  1.000  0.998  0.999  0.999  0.999  0.997  0.909


   alpha     31     32     33     34     35     36     37     38     39     40
    beta     31     31     32     34     35     36     37     38     39     40
 overlap   0.566  0.822  0.707  0.992  0.990  0.911  0.641  0.748  0.995  0.877


   alpha     41     42     43     44     45     46     47     48     49     50
    beta     43     41     42     44     45     46     47     48     49     50
 overlap   0.967  0.790  0.796  0.961  0.792  0.799  0.988  0.946  0.959  0.964


   alpha     51     52     53     54     55     56     57     58     59     60
    beta     51     53     52     54     55     56     57     58     59     60
 overlap   0.885  0.676  0.970  0.897  0.737  0.992  0.998  0.985  0.950  0.951


   alpha     61     62     63     64     65     66     67     68     69     70
    beta     61     62     63     64     65     67     66     68     69     70
 overlap   0.998  0.984  0.987  0.973  0.978  0.957  0.962  0.982  0.980  0.980


   alpha     71     72     73     74     75     76     77     78     79     80
    beta     71     72     73     74     75     76     77     78     79     80
 overlap   0.986  0.994  0.933  0.941  0.938  0.807  0.815  0.927  0.991  0.992


   alpha     81     82     83     84     85     86     87     88     89     90
    beta     82     81     83     84     85     86     87     88     89     90
 overlap   0.910  0.953  0.968  0.992  0.980  0.968  0.963  0.978  0.975  0.958


   alpha     91     92     93     94     95     96     97     98     99    100
    beta     91     92     93     94     95     96     97     98     99    100
 overlap   0.768  0.792  0.943  0.986  0.979  0.990  0.987  0.991  0.992  0.981


   alpha    101    102    103    104    105    106    107    108    109    110
    beta    101    102    103    104    105    106    107    109    108    110
 overlap   0.988  0.997  0.994  0.976  0.973  0.988  0.981  0.974  0.974  0.985


   alpha    111    112    113    114    115    116    117    118    119    120
    beta    111    112    113    114    115    116    117    118    119    120
 overlap   0.991  0.994  0.997  0.996  0.997  0.999  0.999  0.999  0.994  0.994


   alpha    121    122    123    124    125    126    127    128    129    130
    beta    121    122    123    124    125    126    127    128    129    131
 overlap   0.993  0.986  0.950  0.981  0.700  0.735  0.838  0.859  0.834  0.764


   alpha    131    132    133    134    135    136    137    138    139    140
    beta    130    132    133    134    134    135    137    138    139    140
 overlap   0.837  0.954  0.801  0.660  0.679  0.782  0.977  0.970  0.816  0.831


   alpha    141    142    143    144    145    146    147    148    149    150
    beta    141    142    143    144    145    146    149    148    149    150
 overlap   0.982  0.995  0.920  0.937  0.983  0.954  0.649  0.752  0.706  0.996


   alpha    151    152    153    154    155    156    157    158    159    160
    beta    151    153    152    154    155    156    157    158    159    160
 overlap   0.999  0.991  0.990  0.799  0.773  0.953  0.998  0.996  0.981  0.975


   alpha    161    162    163    164    165    166    167    168    169    170
    beta    161    162    163    164    165    166    167    168    170    169
 overlap   0.978  0.944  0.932  0.977  0.846  0.850  0.993  0.979  0.796  0.806

------------------------------------------------------------
EAF file 0: "./molecule.aoints.0" size=7115112448 bytes
------------------------------------------------------------
               write      read    awrite     aread      wait
               -----      ----    ------     -----      ----
     calls:    13571        30         0    407100    407100
   data(b): 7.12e+09  1.57e+07  0.00e+00  2.13e+11
   time(s): 0.00e+00  0.00e+00  0.00e+00  0.00e+00  0.00e+00
rate(mb/s): 0.00e+00  0.00e+00
------------------------------------------------------------



   alpha    171    172    173    174    175    176    177    178    179    180
    beta    171    172    173    175    174    176    177    178    179    179
 overlap   0.992  0.992  0.970  0.968  0.972  0.997  0.996  0.840  0.761  0.605


   alpha    181    182    183    184    185    186    187    188    189    190
    beta    181    182    183    184    185    186    187    188    189    191
 overlap   0.972  0.963  0.976  0.964  0.964  0.996  1.000  0.997  0.999  0.753


   alpha    191    192    193    194    195    196    197    198    199    200
    beta    190    192    193    195    194    196    198    197    199    200
 overlap   0.702  0.845  0.998  0.974  0.975  0.967  0.878  0.881  0.954  0.986


   alpha    201    202    203    204    205    206    207    208    209    210
    beta    201    202    203    204    205    206    207    208    209    210
 overlap   0.947  0.920  0.891  0.954  0.994  0.997  0.986  0.982  0.983  0.986


   alpha    211    212    213    214    215    216    217    218    219    220
    beta    211    212    213    214    215    216    217    219    218    220
 overlap   0.992  0.994  0.993  0.994  0.964  0.891  0.920  0.783  0.771  0.997


   alpha    221    222    223    224    225    226    227    228    229    230
    beta    221    222    223    224    225    226    227    228    229    230
 overlap   0.993  0.989  0.991  0.997  0.997  0.998  0.991  0.993  0.985  0.994


   alpha    231    232    233    234    235    236    237    238    239    240
    beta    231    232    233    234    235    236    237    238    239    240
 overlap   1.000  0.999  0.998  0.998  0.999  0.999  1.000  0.997  0.997  1.000


   alpha    241    242    243    244    245    246    247    248    249    250
    beta    241    242    243    244    245    246    247    248    249    250
 overlap   0.999  1.000  1.000  1.000  1.000  0.999  0.999  0.997  0.734  0.734


   alpha    251    252    253    254    255    256    257    258
    beta    251    252    253    254    255    256    257    258
 overlap   0.992  0.995  0.992  0.952  0.953  0.999  1.000  1.000

     --------------------------
     Expectation value of S2:  
     --------------------------
      <S2> =      2.1045 (Exact =     2.0000)


 center of mass
 --------------
 x =  -0.00146158 y =   0.00206825 z =   0.01176848

 moments of inertia (a.u.)
 ------------------
        1655.776225337714          -0.000000000000           0.000000000000
          -0.000000000000        1624.966879013240           0.000000000000
           0.000000000000           0.000000000000        3251.302064478198

     Multipole analysis of the density
     ---------------------------------

     L   x y z        total         alpha         beta         nuclear
     -   - - -        -----         -----         ----         -------
     0   0 0 0      1.000000    -44.000000    -42.000000     87.000000

     1   1 0 0     -0.062592      0.261647     -0.324239      0.000000
     1   0 1 0     -0.528781     -0.784960      0.256178      0.000000
     1   0 0 1     -0.203776     -0.791782      0.588006      0.000000

     2   2 0 0    -32.148986   -479.701604   -459.609119    907.161737
     2   1 1 0      1.378395      0.029382      0.444081      0.904933
     2   1 0 1      0.358423     -0.165583     -0.629745      1.153751
     2   0 2 0    -33.197638   -490.026933   -465.745498    922.574793
     2   0 1 1     -0.680643     -2.286896      4.441388     -2.835135
     2   0 0 2    -57.038649    -34.543583    -30.610401      8.115334


 Parallel integral file used   13571 records with       0 large values

 ------------------------------------------------------------------------
 driver: task_gradient failed                   0
 ------------------------------------------------------------------------
 ------------------------------------------------------------------------
  current input line : 
    42: task dft optimize
 ------------------------------------------------------------------------
 ------------------------------------------------------------------------
 There is an error related to the specified geometry
 ------------------------------------------------------------------------
 For more information see the NWChem manual at http://www.nwchem-sw.org/index.php/NWChem_Documentation


 For further details see manual section:                                                                                                                                                                                                                                                                
